[Molden Format]
[N_Atoms]
                   10
[Atoms] (AU)
C1          1      6           1.85022450      1.34425362     -3.28009603
C2          2      6           1.85031005     -1.34435668     -3.28014985
C3          3      6          -0.70671921     -2.17511674     -3.28002190
C4          4      6          -2.28704771      0.00002324     -3.28017221
C5          5      6          -0.70677318      2.17521123     -3.28005529
H6          6      1           3.50506506      2.54653257     -3.27347364
H7          7      1           3.50514378     -2.54664873     -3.27367121
H8          8      1          -1.33876549     -4.12049613     -3.27321229
H9          9      1          -4.33252271      0.00003931     -3.27375869
H10        10      1          -1.33889619      4.12055832     -3.27333435
[5D]
[7F]
[9G]
[Charge] (Mulliken)
  0.26421091246939810     
  0.26425545133453099     
  0.26432213716753061     
  0.26426945256523382     
  0.26428999489886174     
  -6.4272690744829220E-002
  -6.4263113777401681E-002
  -6.4272283117237095E-002
  -6.4274157575257007E-002
  -6.4265703224894333E-002
[GTO] (AU)
   1
   s  14
  5.055750100E+04  1.128874000E-04
  7.524785600E+03  5.295373000E-04
  1.694327600E+03  2.450038300E-03
  4.728227900E+02  1.005398470E-02
  1.517107500E+02  3.545398060E-02
  5.391874600E+01  1.044071086E-01
  2.065931100E+01  2.412894918E-01
  8.383976000E+00  3.834225483E-01
  3.577015000E+00  3.078514393E-01
  1.547118000E+00  6.872442990E-02
  6.130130000E-01  2.224445000E-04
  2.460680000E-01  1.976748900E-03
  9.908700000E-02  2.057859400E-03
  3.468000000E-02  4.182020000E-04
   s  14
  5.055750100E+04 -2.507420000E-05
  7.524785600E+03 -1.175945000E-04
  1.694327600E+03 -5.456275000E-04
  4.728227900E+02 -2.245077100E-03
  1.517107500E+02 -8.043471800E-03
  5.391874600E+01 -2.442588710E-02
  2.065931100E+01 -6.136791180E-02
  8.383976000E+00 -1.177767835E-01
  3.577015000E+00 -1.550487783E-01
  1.547118000E+00 -1.933316860E-02
  6.130130000E-01  3.996930678E-01
  2.460680000E-01  5.589420949E-01
  9.908700000E-02  1.711195023E-01
  3.468000000E-02  7.456244600E-03
   s  14
  5.055750100E+04  1.617880000E-05
  7.524785600E+03  7.497120000E-05
  1.694327600E+03  3.573467000E-04
  4.728227900E+02  1.434931600E-03
  1.517107500E+02  5.508677900E-03
  5.391874600E+01  1.691496900E-02
  2.065931100E+01  5.141665240E-02
  8.383976000E+00  1.137343741E-01
  3.577015000E+00  2.337183944E-01
  1.547118000E+00 -7.183782570E-02
  6.130130000E-01 -1.049090871E+00
  2.460680000E-01 -6.662733990E-02
  9.908700000E-02  1.011999380E+00
  3.468000000E-02  1.656046386E-01
   p   9
  8.333315500E+01  1.344656000E-03
  1.955761100E+01  1.023555500E-02
  6.080365000E+00  4.520067100E-02
  2.179317000E+00  1.410756198E-01
  8.651500000E-01  3.047388085E-01
  3.619440000E-01  3.995281011E-01
  1.547400000E-01  2.719163432E-01
  6.542900000E-02  5.857669330E-02
  2.290000000E-02 -1.263813000E-04
   p   9
  8.333315500E+01 -1.771588500E-03
  1.955761100E+01 -1.456218100E-02
  6.080365000E+00 -5.745733570E-02
  2.179317000E+00 -2.126582848E-01
  8.651500000E-01 -5.271712924E-01
  3.619440000E-01 -9.296977300E-02
  1.547400000E-01  6.630031669E-01
  6.542900000E-02  3.360877793E-01
  2.290000000E-02  5.469524400E-03
   d   4
  1.900000000E+00  1.424518048E-01
  6.650000000E-01  5.591973019E-01
  2.327500000E-01  4.430004380E-01
  8.146300000E-02  4.106653700E-02
 
   2
   s  14
  5.055750100E+04  1.128874000E-04
  7.524785600E+03  5.295373000E-04
  1.694327600E+03  2.450038300E-03
  4.728227900E+02  1.005398470E-02
  1.517107500E+02  3.545398060E-02
  5.391874600E+01  1.044071086E-01
  2.065931100E+01  2.412894918E-01
  8.383976000E+00  3.834225483E-01
  3.577015000E+00  3.078514393E-01
  1.547118000E+00  6.872442990E-02
  6.130130000E-01  2.224445000E-04
  2.460680000E-01  1.976748900E-03
  9.908700000E-02  2.057859400E-03
  3.468000000E-02  4.182020000E-04
   s  14
  5.055750100E+04 -2.507420000E-05
  7.524785600E+03 -1.175945000E-04
  1.694327600E+03 -5.456275000E-04
  4.728227900E+02 -2.245077100E-03
  1.517107500E+02 -8.043471800E-03
  5.391874600E+01 -2.442588710E-02
  2.065931100E+01 -6.136791180E-02
  8.383976000E+00 -1.177767835E-01
  3.577015000E+00 -1.550487783E-01
  1.547118000E+00 -1.933316860E-02
  6.130130000E-01  3.996930678E-01
  2.460680000E-01  5.589420949E-01
  9.908700000E-02  1.711195023E-01
  3.468000000E-02  7.456244600E-03
   s  14
  5.055750100E+04  1.617880000E-05
  7.524785600E+03  7.497120000E-05
  1.694327600E+03  3.573467000E-04
  4.728227900E+02  1.434931600E-03
  1.517107500E+02  5.508677900E-03
  5.391874600E+01  1.691496900E-02
  2.065931100E+01  5.141665240E-02
  8.383976000E+00  1.137343741E-01
  3.577015000E+00  2.337183944E-01
  1.547118000E+00 -7.183782570E-02
  6.130130000E-01 -1.049090871E+00
  2.460680000E-01 -6.662733990E-02
  9.908700000E-02  1.011999380E+00
  3.468000000E-02  1.656046386E-01
   p   9
  8.333315500E+01  1.344656000E-03
  1.955761100E+01  1.023555500E-02
  6.080365000E+00  4.520067100E-02
  2.179317000E+00  1.410756198E-01
  8.651500000E-01  3.047388085E-01
  3.619440000E-01  3.995281011E-01
  1.547400000E-01  2.719163432E-01
  6.542900000E-02  5.857669330E-02
  2.290000000E-02 -1.263813000E-04
   p   9
  8.333315500E+01 -1.771588500E-03
  1.955761100E+01 -1.456218100E-02
  6.080365000E+00 -5.745733570E-02
  2.179317000E+00 -2.126582848E-01
  8.651500000E-01 -5.271712924E-01
  3.619440000E-01 -9.296977300E-02
  1.547400000E-01  6.630031669E-01
  6.542900000E-02  3.360877793E-01
  2.290000000E-02  5.469524400E-03
   d   4
  1.900000000E+00  1.424518048E-01
  6.650000000E-01  5.591973019E-01
  2.327500000E-01  4.430004380E-01
  8.146300000E-02  4.106653700E-02
 
   3
   s  14
  5.055750100E+04  1.128874000E-04
  7.524785600E+03  5.295373000E-04
  1.694327600E+03  2.450038300E-03
  4.728227900E+02  1.005398470E-02
  1.517107500E+02  3.545398060E-02
  5.391874600E+01  1.044071086E-01
  2.065931100E+01  2.412894918E-01
  8.383976000E+00  3.834225483E-01
  3.577015000E+00  3.078514393E-01
  1.547118000E+00  6.872442990E-02
  6.130130000E-01  2.224445000E-04
  2.460680000E-01  1.976748900E-03
  9.908700000E-02  2.057859400E-03
  3.468000000E-02  4.182020000E-04
   s  14
  5.055750100E+04 -2.507420000E-05
  7.524785600E+03 -1.175945000E-04
  1.694327600E+03 -5.456275000E-04
  4.728227900E+02 -2.245077100E-03
  1.517107500E+02 -8.043471800E-03
  5.391874600E+01 -2.442588710E-02
  2.065931100E+01 -6.136791180E-02
  8.383976000E+00 -1.177767835E-01
  3.577015000E+00 -1.550487783E-01
  1.547118000E+00 -1.933316860E-02
  6.130130000E-01  3.996930678E-01
  2.460680000E-01  5.589420949E-01
  9.908700000E-02  1.711195023E-01
  3.468000000E-02  7.456244600E-03
   s  14
  5.055750100E+04  1.617880000E-05
  7.524785600E+03  7.497120000E-05
  1.694327600E+03  3.573467000E-04
  4.728227900E+02  1.434931600E-03
  1.517107500E+02  5.508677900E-03
  5.391874600E+01  1.691496900E-02
  2.065931100E+01  5.141665240E-02
  8.383976000E+00  1.137343741E-01
  3.577015000E+00  2.337183944E-01
  1.547118000E+00 -7.183782570E-02
  6.130130000E-01 -1.049090871E+00
  2.460680000E-01 -6.662733990E-02
  9.908700000E-02  1.011999380E+00
  3.468000000E-02  1.656046386E-01
   p   9
  8.333315500E+01  1.344656000E-03
  1.955761100E+01  1.023555500E-02
  6.080365000E+00  4.520067100E-02
  2.179317000E+00  1.410756198E-01
  8.651500000E-01  3.047388085E-01
  3.619440000E-01  3.995281011E-01
  1.547400000E-01  2.719163432E-01
  6.542900000E-02  5.857669330E-02
  2.290000000E-02 -1.263813000E-04
   p   9
  8.333315500E+01 -1.771588500E-03
  1.955761100E+01 -1.456218100E-02
  6.080365000E+00 -5.745733570E-02
  2.179317000E+00 -2.126582848E-01
  8.651500000E-01 -5.271712924E-01
  3.619440000E-01 -9.296977300E-02
  1.547400000E-01  6.630031669E-01
  6.542900000E-02  3.360877793E-01
  2.290000000E-02  5.469524400E-03
   d   4
  1.900000000E+00  1.424518048E-01
  6.650000000E-01  5.591973019E-01
  2.327500000E-01  4.430004380E-01
  8.146300000E-02  4.106653700E-02
 
   4
   s  14
  5.055750100E+04  1.128874000E-04
  7.524785600E+03  5.295373000E-04
  1.694327600E+03  2.450038300E-03
  4.728227900E+02  1.005398470E-02
  1.517107500E+02  3.545398060E-02
  5.391874600E+01  1.044071086E-01
  2.065931100E+01  2.412894918E-01
  8.383976000E+00  3.834225483E-01
  3.577015000E+00  3.078514393E-01
  1.547118000E+00  6.872442990E-02
  6.130130000E-01  2.224445000E-04
  2.460680000E-01  1.976748900E-03
  9.908700000E-02  2.057859400E-03
  3.468000000E-02  4.182020000E-04
   s  14
  5.055750100E+04 -2.507420000E-05
  7.524785600E+03 -1.175945000E-04
  1.694327600E+03 -5.456275000E-04
  4.728227900E+02 -2.245077100E-03
  1.517107500E+02 -8.043471800E-03
  5.391874600E+01 -2.442588710E-02
  2.065931100E+01 -6.136791180E-02
  8.383976000E+00 -1.177767835E-01
  3.577015000E+00 -1.550487783E-01
  1.547118000E+00 -1.933316860E-02
  6.130130000E-01  3.996930678E-01
  2.460680000E-01  5.589420949E-01
  9.908700000E-02  1.711195023E-01
  3.468000000E-02  7.456244600E-03
   s  14
  5.055750100E+04  1.617880000E-05
  7.524785600E+03  7.497120000E-05
  1.694327600E+03  3.573467000E-04
  4.728227900E+02  1.434931600E-03
  1.517107500E+02  5.508677900E-03
  5.391874600E+01  1.691496900E-02
  2.065931100E+01  5.141665240E-02
  8.383976000E+00  1.137343741E-01
  3.577015000E+00  2.337183944E-01
  1.547118000E+00 -7.183782570E-02
  6.130130000E-01 -1.049090871E+00
  2.460680000E-01 -6.662733990E-02
  9.908700000E-02  1.011999380E+00
  3.468000000E-02  1.656046386E-01
   p   9
  8.333315500E+01  1.344656000E-03
  1.955761100E+01  1.023555500E-02
  6.080365000E+00  4.520067100E-02
  2.179317000E+00  1.410756198E-01
  8.651500000E-01  3.047388085E-01
  3.619440000E-01  3.995281011E-01
  1.547400000E-01  2.719163432E-01
  6.542900000E-02  5.857669330E-02
  2.290000000E-02 -1.263813000E-04
   p   9
  8.333315500E+01 -1.771588500E-03
  1.955761100E+01 -1.456218100E-02
  6.080365000E+00 -5.745733570E-02
  2.179317000E+00 -2.126582848E-01
  8.651500000E-01 -5.271712924E-01
  3.619440000E-01 -9.296977300E-02
  1.547400000E-01  6.630031669E-01
  6.542900000E-02  3.360877793E-01
  2.290000000E-02  5.469524400E-03
   d   4
  1.900000000E+00  1.424518048E-01
  6.650000000E-01  5.591973019E-01
  2.327500000E-01  4.430004380E-01
  8.146300000E-02  4.106653700E-02
 
   5
   s  14
  5.055750100E+04  1.128874000E-04
  7.524785600E+03  5.295373000E-04
  1.694327600E+03  2.450038300E-03
  4.728227900E+02  1.005398470E-02
  1.517107500E+02  3.545398060E-02
  5.391874600E+01  1.044071086E-01
  2.065931100E+01  2.412894918E-01
  8.383976000E+00  3.834225483E-01
  3.577015000E+00  3.078514393E-01
  1.547118000E+00  6.872442990E-02
  6.130130000E-01  2.224445000E-04
  2.460680000E-01  1.976748900E-03
  9.908700000E-02  2.057859400E-03
  3.468000000E-02  4.182020000E-04
   s  14
  5.055750100E+04 -2.507420000E-05
  7.524785600E+03 -1.175945000E-04
  1.694327600E+03 -5.456275000E-04
  4.728227900E+02 -2.245077100E-03
  1.517107500E+02 -8.043471800E-03
  5.391874600E+01 -2.442588710E-02
  2.065931100E+01 -6.136791180E-02
  8.383976000E+00 -1.177767835E-01
  3.577015000E+00 -1.550487783E-01
  1.547118000E+00 -1.933316860E-02
  6.130130000E-01  3.996930678E-01
  2.460680000E-01  5.589420949E-01
  9.908700000E-02  1.711195023E-01
  3.468000000E-02  7.456244600E-03
   s  14
  5.055750100E+04  1.617880000E-05
  7.524785600E+03  7.497120000E-05
  1.694327600E+03  3.573467000E-04
  4.728227900E+02  1.434931600E-03
  1.517107500E+02  5.508677900E-03
  5.391874600E+01  1.691496900E-02
  2.065931100E+01  5.141665240E-02
  8.383976000E+00  1.137343741E-01
  3.577015000E+00  2.337183944E-01
  1.547118000E+00 -7.183782570E-02
  6.130130000E-01 -1.049090871E+00
  2.460680000E-01 -6.662733990E-02
  9.908700000E-02  1.011999380E+00
  3.468000000E-02  1.656046386E-01
   p   9
  8.333315500E+01  1.344656000E-03
  1.955761100E+01  1.023555500E-02
  6.080365000E+00  4.520067100E-02
  2.179317000E+00  1.410756198E-01
  8.651500000E-01  3.047388085E-01
  3.619440000E-01  3.995281011E-01
  1.547400000E-01  2.719163432E-01
  6.542900000E-02  5.857669330E-02
  2.290000000E-02 -1.263813000E-04
   p   9
  8.333315500E+01 -1.771588500E-03
  1.955761100E+01 -1.456218100E-02
  6.080365000E+00 -5.745733570E-02
  2.179317000E+00 -2.126582848E-01
  8.651500000E-01 -5.271712924E-01
  3.619440000E-01 -9.296977300E-02
  1.547400000E-01  6.630031669E-01
  6.542900000E-02  3.360877793E-01
  2.290000000E-02  5.469524400E-03
   d   4
  1.900000000E+00  1.424518048E-01
  6.650000000E-01  5.591973019E-01
  2.327500000E-01  4.430004380E-01
  8.146300000E-02  4.106653700E-02
 
   6
   s   8
  1.886144500E+02  9.638500027E-04
  2.827659600E+01  7.491960021E-03
  6.424830000E+00  3.759541011E-02
  1.815041000E+00  1.433949804E-01
  5.910630000E-01  3.486363010E-01
  2.121490000E-01  4.382973612E-01
  7.989100000E-02  1.651066105E-01
  2.796200000E-02  2.102287006E-02
   s   8
  1.886144500E+02 -1.311899994E-03
  2.827659600E+01 -1.034509996E-02
  6.424830000E+00 -5.049529978E-02
  1.815041000E+00 -2.073854991E-01
  5.910630000E-01 -4.350884981E-01
  2.121490000E-01 -2.472969989E-02
  7.989100000E-02  3.225259886E-01
  2.796200000E-02  7.072753770E-01
   p   4
  2.305000000E+00  1.127901896E-01
  8.067500000E-01  4.185075284E-01
  2.823620000E-01  4.700077282E-01
  9.882700000E-02  1.826260293E-01
 
   7
   s   8
  1.886144500E+02  9.638500027E-04
  2.827659600E+01  7.491960021E-03
  6.424830000E+00  3.759541011E-02
  1.815041000E+00  1.433949804E-01
  5.910630000E-01  3.486363010E-01
  2.121490000E-01  4.382973612E-01
  7.989100000E-02  1.651066105E-01
  2.796200000E-02  2.102287006E-02
   s   8
  1.886144500E+02 -1.311899994E-03
  2.827659600E+01 -1.034509996E-02
  6.424830000E+00 -5.049529978E-02
  1.815041000E+00 -2.073854991E-01
  5.910630000E-01 -4.350884981E-01
  2.121490000E-01 -2.472969989E-02
  7.989100000E-02  3.225259886E-01
  2.796200000E-02  7.072753770E-01
   p   4
  2.305000000E+00  1.127901896E-01
  8.067500000E-01  4.185075284E-01
  2.823620000E-01  4.700077282E-01
  9.882700000E-02  1.826260293E-01
 
   8
   s   8
  1.886144500E+02  9.638500027E-04
  2.827659600E+01  7.491960021E-03
  6.424830000E+00  3.759541011E-02
  1.815041000E+00  1.433949804E-01
  5.910630000E-01  3.486363010E-01
  2.121490000E-01  4.382973612E-01
  7.989100000E-02  1.651066105E-01
  2.796200000E-02  2.102287006E-02
   s   8
  1.886144500E+02 -1.311899994E-03
  2.827659600E+01 -1.034509996E-02
  6.424830000E+00 -5.049529978E-02
  1.815041000E+00 -2.073854991E-01
  5.910630000E-01 -4.350884981E-01
  2.121490000E-01 -2.472969989E-02
  7.989100000E-02  3.225259886E-01
  2.796200000E-02  7.072753770E-01
   p   4
  2.305000000E+00  1.127901896E-01
  8.067500000E-01  4.185075284E-01
  2.823620000E-01  4.700077282E-01
  9.882700000E-02  1.826260293E-01
 
   9
   s   8
  1.886144500E+02  9.638500027E-04
  2.827659600E+01  7.491960021E-03
  6.424830000E+00  3.759541011E-02
  1.815041000E+00  1.433949804E-01
  5.910630000E-01  3.486363010E-01
  2.121490000E-01  4.382973612E-01
  7.989100000E-02  1.651066105E-01
  2.796200000E-02  2.102287006E-02
   s   8
  1.886144500E+02 -1.311899994E-03
  2.827659600E+01 -1.034509996E-02
  6.424830000E+00 -5.049529978E-02
  1.815041000E+00 -2.073854991E-01
  5.910630000E-01 -4.350884981E-01
  2.121490000E-01 -2.472969989E-02
  7.989100000E-02  3.225259886E-01
  2.796200000E-02  7.072753770E-01
   p   4
  2.305000000E+00  1.127901896E-01
  8.067500000E-01  4.185075284E-01
  2.823620000E-01  4.700077282E-01
  9.882700000E-02  1.826260293E-01
 
  10
   s   8
  1.886144500E+02  9.638500027E-04
  2.827659600E+01  7.491960021E-03
  6.424830000E+00  3.759541011E-02
  1.815041000E+00  1.433949804E-01
  5.910630000E-01  3.486363010E-01
  2.121490000E-01  4.382973612E-01
  7.989100000E-02  1.651066105E-01
  2.796200000E-02  2.102287006E-02
   s   8
  1.886144500E+02 -1.311899994E-03
  2.827659600E+01 -1.034509996E-02
  6.424830000E+00 -5.049529978E-02
  1.815041000E+00 -2.073854991E-01
  5.910630000E-01 -4.350884981E-01
  2.121490000E-01 -2.472969989E-02
  7.989100000E-02  3.225259886E-01
  2.796200000E-02  7.072753770E-01
   p   4
  2.305000000E+00  1.127901896E-01
  8.067500000E-01  4.185075284E-01
  2.823620000E-01  4.700077282E-01
  9.882700000E-02  1.826260293E-01
 
[MO]
Sym=     1a  
Ene=   -10.4510
Spin= Alpha
Occup=    1.00000
   1         0.44813915
   2         0.00176212
   3        -0.00345740
   4         0.00013962
   5         0.00013884
   6        -0.00000033
   7         0.00004285
   8         0.00005813
   9        -0.00000112
  10         0.00049818
  11        -0.00000017
  12        -0.00000018
  13         0.00007703
  14         0.00023290
  15         0.44691092
  16         0.00167688
  17        -0.00348294
  18         0.00020226
  19        -0.00011275
  20        -0.00000046
  21         0.00008676
  22        -0.00003697
  23        -0.00000122
  24         0.00049598
  25        -0.00000012
  26         0.00000015
  27         0.00007424
  28        -0.00022964
  29         0.44347665
  30         0.00177668
  31        -0.00339467
  32        -0.00005411
  33        -0.00017966
  34        -0.00000013
  35        -0.00001697
  36        -0.00005784
  37        -0.00000097
  38         0.00048957
  39         0.00000009
  40         0.00000033
  41        -0.00019193
  42         0.00014074
  43         0.44587674
  44         0.00176448
  45        -0.00342920
  46        -0.00019315
  47         0.00004869
  48        -0.00000052
  49        -0.00006604
  50         0.00003444
  51        -0.00000128
  52         0.00049400
  53         0.00000015
  54         0.00000003
  55         0.00024165
  56         0.00000259
  57         0.45229888
  58         0.00158384
  59        -0.00359147
  60        -0.00007035
  61         0.00026068
  62        -0.00000022
  63        -0.00002819
  64         0.00012072
  65        -0.00000104
  66         0.00050605
  67         0.00000005
  68        -0.00000029
  69        -0.00020062
  70        -0.00014593
  71         0.00056461
  72         0.00094258
  73         0.00023069
  74         0.00016315
  75         0.00000130
  76         0.00055621
  77         0.00093537
  78         0.00022545
  79        -0.00016791
  80         0.00000131
  81         0.00056220
  82         0.00093552
  83        -0.00008622
  84        -0.00026402
  85         0.00000127
  86         0.00056301
  87         0.00093885
  88        -0.00028020
  89        -0.00000575
  90         0.00000129
  91         0.00055246
  92         0.00093903
  93        -0.00009009
  94         0.00027189
  95         0.00000134
Sym=     1a  
Ene=   -10.4440
Spin= Beta
Occup=    1.00000
   1         0.44816101
   2         0.00145836
   3        -0.00323612
   4         0.00013594
   5         0.00012596
   6         0.00000002
   7         0.00000940
   8         0.00002698
   9        -0.00000101
  10         0.00028199
  11         0.00000043
  12         0.00000029
  13         0.00006616
  14         0.00020177
  15         0.44725823
  16         0.00138495
  17        -0.00326178
  18         0.00018699
  19        -0.00010732
  20        -0.00000009
  21         0.00004611
  22        -0.00001128
  23        -0.00000110
  24         0.00027984
  25         0.00000045
  26        -0.00000029
  27         0.00006466
  28        -0.00019889
  29         0.44350382
  30         0.00147074
  31        -0.00317948
  32        -0.00004885
  33        -0.00017015
  34         0.00000017
  35        -0.00000134
  36        -0.00001595
  37        -0.00000089
  38         0.00027644
  39        -0.00000016
  40        -0.00000047
  41        -0.00016583
  42         0.00012149
  43         0.44554339
  44         0.00146420
  45        -0.00320485
  46        -0.00018051
  47         0.00003835
  48        -0.00000013
  49        -0.00001939
  50         0.00002790
  51        -0.00000114
  52         0.00027884
  53        -0.00000053
  54         0.00000002
  55         0.00020851
  56         0.00000139
  57         0.45203285
  58         0.00131699
  59        -0.00334658
  60        -0.00006314
  61         0.00023677
  62         0.00000009
  63        -0.00001130
  64         0.00006791
  65        -0.00000095
  66         0.00028480
  67        -0.00000018
  68         0.00000050
  69        -0.00017371
  70        -0.00012620
  71         0.00049080
  72         0.00088521
  73         0.00021420
  74         0.00015218
  75         0.00000119
  76         0.00048325
  77         0.00087906
  78         0.00021026
  79        -0.00015638
  80         0.00000121
  81         0.00048995
  82         0.00087862
  83        -0.00008045
  84        -0.00024524
  85         0.00000116
  86         0.00049018
  87         0.00088142
  88        -0.00026014
  89        -0.00000480
  90         0.00000119
  91         0.00047882
  92         0.00088232
  93        -0.00008406
  94         0.00025329
  95         0.00000123
Sym=     2a  
Ene=   -10.4500
Spin= Alpha
Occup=    1.00000
   1         0.05557132
   2        -0.00080564
   3        -0.00105165
   4        -0.00372399
   5         0.00570835
   6        -0.00000002
   7        -0.00268970
   8         0.00418142
   9        -0.00000008
  10         0.00010496
  11        -0.00000113
  12         0.00000169
  13         0.00026451
  14        -0.00000684
  15        -0.58165565
  16         0.00849321
  17         0.01098001
  18        -0.00137616
  19         0.00432094
  20         0.00000105
  21        -0.00125194
  22         0.00333476
  23         0.00000115
  24        -0.00108175
  25        -0.00000004
  26         0.00000096
  27        -0.00032788
  28         0.00069158
  29        -0.41659089
  30         0.00598255
  31         0.00781531
  32        -0.00406110
  33         0.00402809
  34         0.00000028
  35        -0.00289523
  36         0.00315006
  37         0.00000050
  38        -0.00077420
  39        -0.00000133
  40         0.00000082
  41         0.00033037
  42        -0.00047274
  43         0.31637529
  44        -0.00456294
  45        -0.00595310
  46        -0.00195786
  47         0.00587077
  48        -0.00000067
  49        -0.00160026
  50         0.00428236
  51        -0.00000068
  52         0.00059056
  53        -0.00000033
  54         0.00000177
  55         0.00041774
  56         0.00021782
  57         0.61618970
  58        -0.00914589
  59        -0.01171209
  60        -0.00262380
  61         0.00327345
  62        -0.00000061
  63        -0.00201624
  64         0.00269946
  65        -0.00000084
  66         0.00114921
  67        -0.00000065
  68         0.00000038
  69        -0.00068374
  70        -0.00042969
  71        -0.00002598
  72         0.00004627
  73         0.00052192
  74        -0.00062256
  75         0.00000037
  76         0.00027360
  77        -0.00048516
  78        -0.00065709
  79         0.00008187
  80        -0.00000381
  81         0.00018753
  82        -0.00035336
  83         0.00070668
  84         0.00020698
  85        -0.00000279
  86        -0.00014467
  87         0.00026652
  88        -0.00031677
  89        -0.00069902
  90         0.00000206
  91        -0.00030317
  92         0.00050450
  93        -0.00002214
  94         0.00063999
  95         0.00000414
Sym=     2a  
Ene=   -10.4440
Spin= Beta
Occup=    1.00000
   1         0.05295122
   2        -0.00062352
   3        -0.00088161
   4        -0.00307474
   5         0.00470826
   6        -0.00000001
   7        -0.00228554
   8         0.00353705
   9        -0.00000011
  10         0.00005774
  11        -0.00000104
  12         0.00000179
  13         0.00013184
  14         0.00002760
  15        -0.58302326
  16         0.00695155
  17         0.00970330
  18        -0.00125775
  19         0.00362257
  20         0.00000085
  21        -0.00110388
  22         0.00283278
  23         0.00000136
  24        -0.00062087
  25        -0.00000132
  26         0.00000192
  27        -0.00026166
  28         0.00066306
  29        -0.41411045
  30         0.00484744
  31         0.00684752
  32        -0.00334201
  33         0.00339751
  34         0.00000022
  35        -0.00245942
  36         0.00268245
  37         0.00000069
  38        -0.00044181
  39        -0.00000098
  40         0.00000201
  41         0.00035936
  42        -0.00036777
  43         0.31894534
  44        -0.00374379
  45        -0.00528558
  46        -0.00169332
  47         0.00482749
  48        -0.00000054
  49        -0.00138237
  50         0.00361546
  51        -0.00000078
  52         0.00034216
  53        -0.00000119
  54         0.00000178
  55         0.00039372
  56         0.00009959
  57         0.61625571
  58        -0.00746018
  59        -0.01031842
  60        -0.00222757
  61         0.00281773
  62        -0.00000051
  63        -0.00173518
  64         0.00231334
  65        -0.00000113
  66         0.00065713
  67        -0.00000120
  68         0.00000213
  69        -0.00062426
  70        -0.00042258
  71        -0.00003740
  72         0.00004388
  73         0.00046019
  74        -0.00054091
  75         0.00000036
  76         0.00041231
  77        -0.00048199
  78        -0.00063987
  79         0.00012329
  80        -0.00000380
  81         0.00028430
  82        -0.00034801
  83         0.00063648
  84         0.00023355
  85        -0.00000276
  86        -0.00022113
  87         0.00026674
  88        -0.00032386
  89        -0.00060868
  90         0.00000206
  91        -0.00044789
  92         0.00050167
  93        -0.00004362
  94         0.00064347
  95         0.00000411
Sym=     3a  
Ene=   -10.4500
Spin= Alpha
Occup=    1.00000
   1        -0.62549785
   2         0.00915355
   3         0.01182662
   4        -0.00355308
   5        -0.00179577
   6         0.00000085
   7        -0.00286307
   8        -0.00150675
   9         0.00000103
  10        -0.00116610
  11        -0.00000064
  12        -0.00000014
  13        -0.00023119
  14        -0.00078728
  15        -0.24899671
  16         0.00369290
  17         0.00473347
  18        -0.00495831
  19        -0.00413160
  20         0.00000050
  21        -0.00372525
  22        -0.00293585
  23         0.00000050
  24        -0.00046501
  25        -0.00000131
  26        -0.00000139
  27         0.00011932
  28         0.00038223
  29         0.47511042
  30        -0.00692180
  31        -0.00896143
  32        -0.00521169
  33        -0.00143737
  34        -0.00000033
  35        -0.00387915
  36        -0.00128840
  37        -0.00000056
  38         0.00088361
  39        -0.00000142
  40         0.00000003
  41        -0.00060041
  42         0.00022891
  43         0.54492298
  44        -0.00796045
  45        -0.01028900
  46        -0.00342365
  47        -0.00347989
  48        -0.00000111
  49        -0.00278636
  50        -0.00253805
  51        -0.00000116
  52         0.00101364
  53        -0.00000058
  54        -0.00000102
  55         0.00071124
  56        -0.00012934
  57        -0.13720471
  58         0.00206772
  59         0.00262561
  60        -0.00605405
  61        -0.00289692
  62         0.00000009
  63        -0.00439372
  64        -0.00218340
  65         0.00000018
  66        -0.00025685
  67        -0.00000184
  68        -0.00000075
  69         0.00000087
  70         0.00030530
  71         0.00029675
  72        -0.00051969
  73        -0.00046113
  74        -0.00042858
  75        -0.00000416
  76         0.00012241
  77        -0.00020387
  78         0.00023642
  79         0.00074916
  80        -0.00000164
  81        -0.00022215
  82         0.00039716
  83         0.00036465
  84        -0.00061640
  85         0.00000320
  86        -0.00025673
  87         0.00045421
  88        -0.00054319
  89         0.00041434
  90         0.00000355
  91         0.00007022
  92        -0.00011032
  93         0.00079593
  94         0.00011408
  95        -0.00000093
Sym=     3a  
Ene=   -10.4440
Spin= Beta
Occup=    1.00000
   1        -0.62597075
   2         0.00747470
   3         0.01043136
   4        -0.00302647
   5        -0.00158241
   6         0.00000069
   7        -0.00244431
   8        -0.00131402
   9         0.00000128
  10        -0.00066878
  11        -0.00000207
  12        -0.00000124
  13        -0.00022754
  14        -0.00073319
  15        -0.24635503
  16         0.00298200
  17         0.00412702
  18        -0.00412687
  19        -0.00339206
  20         0.00000040
  21        -0.00316101
  22        -0.00248999
  23         0.00000057
  24        -0.00026339
  25        -0.00000187
  26        -0.00000100
  27         0.00000763
  28         0.00032044
  29         0.47736931
  30        -0.00567152
  31        -0.00793456
  32        -0.00431394
  33        -0.00129907
  34        -0.00000027
  35        -0.00328158
  36        -0.00113005
  37        -0.00000080
  38         0.00050845
  39        -0.00000187
  40        -0.00000134
  41        -0.00051638
  42         0.00028049
  43         0.54379162
  44        -0.00647654
  45        -0.00904678
  46        -0.00293236
  47        -0.00289144
  48        -0.00000090
  49        -0.00238409
  50        -0.00216525
  51        -0.00000133
  52         0.00057912
  53        -0.00000204
  54        -0.00000105
  55         0.00066358
  56        -0.00005983
  57        -0.13994354
  58         0.00171958
  59         0.00235838
  60        -0.00497312
  61        -0.00242921
  62         0.00000008
  63        -0.00370961
  64        -0.00186628
  65         0.00000026
  66        -0.00014979
  67        -0.00000174
  68        -0.00000115
  69         0.00007286
  70         0.00019238
  71         0.00044528
  72        -0.00051593
  73        -0.00047688
  74        -0.00042419
  75        -0.00000413
  76         0.00017942
  77        -0.00020036
  78         0.00018055
  79         0.00067461
  80        -0.00000161
  81        -0.00033556