* OpenMolcas input for azulene: generate a luscus file

&GATEWAY
  Coord = 18

    C   1.19198371  2.00389555  0.00000000
    C   0.04388114  2.81331929  0.00000000
    C  -1.17797493  1.92728244  0.00000000
    C  -1.67974035 -0.59823486  0.00000000
    C  -1.33730014 -1.96237694  0.00000000
    C   0.02443089 -2.59526408  0.00000000
    C   1.29537725 -1.99104651  0.00000000
    C   1.64128348 -0.53120766  0.00000000
    C   0.76233034  0.56147039  0.00000000
    C  -0.76785963  0.58043294  0.00000000
    H   2.26887294  2.34321388  0.00000000
    H   0.01978946  3.94477792  0.00000000
    H  -2.24711211  2.29154007  0.00000000
    H  -2.78405565 -0.34429996  0.00000000
    H  -2.19796551 -2.69806485  0.00000000
    H   0.01283680 -3.72837195  0.00000000
    H   2.18697611 -2.68948105  0.00000000
    H   2.74922019 -0.29308263  0.00000000
  Basis = ANO-RCC-VDZP
  Group = z
  RICD

&SEWARD

&RASSCF
  NActElec = 10
  Inactive = 29  0
  RAS2     =  0 10

&GRID_IT
  ERange = -0.5 0.2
