* OpenMolcas input for cyclopentadienyl cation: generate a molden file

&GATEWAY
  Coord = 10

    C   0.97909664  0.71134838 -1.73575207
    C   0.97914191 -0.71140292 -1.73578055
    C  -0.37397970 -1.15102221 -1.73571284
    C  -1.21025353  0.00001230 -1.73579238
    C  -0.37400826  1.15107221 -1.73573051
    H   1.85480055  1.34756700 -1.73224765
    H   1.85484221 -1.34762847 -1.73235220
    H  -0.70844419 -2.18047265 -1.73210935
    H  -2.29267228  0.00002080 -1.73239849
    H  -0.70851335  2.18050556 -1.73217394
  Basis = ANO-RCC-VDZP
  Group = NoSym
  RICD

&SEWARD

> export MOLCAS_MOLDEN=ON

&SCF
  UHF
  KSDFT = B3LYP
  Charge = 1
  Spin = 3
