* OpenMolcas input for Ni(CO)4 complex

&GATEWAY
  Expert
  Basis set
    Ni. / inline
    28.00   3
    21  5
5048010. 755918.1 172026.2 48724.57 15894.89 5737.468 2237.051 927.0302 403.3461 182.4282 84.58917 38.42293
    18.46879 8.868190 3.918870 1.839853 0.804663 0.169846 0.079370 0.034700 0.013880
     0.00016488 -0.00005141  0.00001925 -0.00000393  0.00000482
     0.00047472 -0.00014817  0.00005550 -0.00001133  0.00001392
     0.00129641 -0.00040539  0.00015184 -0.00003102  0.00003800
     0.00331625 -0.00104051  0.00039007 -0.00007965  0.00009805
     0.00848451 -0.00267868  0.00100408 -0.00020517  0.00025049
     0.02181364 -0.00696984  0.00261987 -0.00053505  0.00066182
     0.05514127 -0.01806053  0.00679646 -0.00138968  0.00168821
     0.12848602 -0.04435701  0.01684253 -0.00344351  0.00428739
     0.25135433 -0.09702514  0.03723518 -0.00763345  0.00921327
     0.35399332 -0.17158759  0.06818737 -0.01401578  0.01774250
     0.27087220 -0.18607088  0.07724949 -0.01601166  0.01863755
     0.06540277  0.06052139 -0.02766633  0.00583579 -0.00472150
    -0.00112167  0.52621873 -0.32341949  0.07036102 -0.09482262
     0.00181355  0.48916304 -0.44915778  0.10302270 -0.12912997
    -0.00083699  0.08451949  0.16981037 -0.04877076  0.08842714
     0.00035981 -0.00192129  0.72425123 -0.21527448  0.35589075
    -0.00013945  0.00196632  0.37297298 -0.22048889  0.04364386
     0.00005506 -0.00039929  0.01839800  0.31119212 -0.77382930
    -0.00005089  0.00040796 -0.00705030  0.48066146 -0.48540314
     0.00002496 -0.00018314  0.00498564  0.34997150  0.68861898
    -0.00000668  0.00005362 -0.00087915  0.01565164  0.63315028
    15  4
  9148.796 2167.171 703.3857 268.1342 113.0078 50.91339 23.87740 11.48924 5.436884 2.533837 1.135309 0.467891 0.187156 0.074862 0.029945
     0.00037691 -0.00013919  0.00004728 -0.00014791
     0.00201392 -0.00074461  0.00025497 -0.00081117
     0.00966916 -0.00360458  0.00122305 -0.00381257
     0.03721814 -0.01403718  0.00482740 -0.01546744
     0.11327180 -0.04412057  0.01505286 -0.04726904
     0.25392972 -0.10291476  0.03598683 -0.11827663
     0.38177715 -0.16533609  0.05659011 -0.17146558
     0.30545074 -0.11056409  0.04116068 -0.15602102
     0.08559399  0.19375619 -0.10786046  0.60109618
     0.00375146  0.48074014 -0.20762962  0.60317690
     0.00147934  0.39770467 -0.08192185 -0.73692016
    -0.00024434  0.09721100  0.15749293 -0.56639815
     0.00021005 -0.00119176  0.52366088  0.18355206
    -0.00009002  0.00224381  0.38676456  0.35462382
     0.00002776 -0.00071044  0.08985520  0.15997898
    10   2
   258.8667 77.49604 29.58972 12.51527 5.624468 2.551303 1.128060 0.475373 0.182128 0.072851
     0.00102169 -0.00120118
     0.00837324 -0.00964895
     0.03766551 -0.04476172
     0.11385420 -0.13191824
     0.23276668 -0.31120376
     0.31966188 -0.30107488
     0.31455367  0.09041995
     0.24044093  0.44873842
     0.11530341  0.37370539
     0.01966117  0.11057730
     6   1
    14.2156 5.6345 2.2333 0.8852 0.3509 0.1391
     0.03449852
     0.24353888
     0.50059751
     0.35939826
     0.14998909
     0.02880204
    Ni    0.00000000     0.00000000     0.00000000
    Contaminant all
  End of basis
  Basis set
     C. / inline
     6.00   2
    14  3
50557.501 7524.7856 1694.3276 472.82279 151.71075 53.918746 20.659311 8.3839760 3.5770150 1.5471180 .61301300 .24606800 .09908700 .03468000
     0.0001128874   -0.0000250742    0.0000161788
     0.0005295373   -0.0001175945    0.0000749712
     0.0024500383   -0.0005456275    0.0003573467
     0.0100539847   -0.0022450771    0.0014349316
     0.0354539806   -0.0080434718    0.0055086779
     0.1044071086   -0.0244258871    0.0169149690
     0.2412894918   -0.0613679118    0.0514166524
     0.3834225483   -0.1177767835    0.1137343741
     0.3078514393   -0.1550487783    0.2337183944
     0.0687244299   -0.0193331686   -0.0718378257
     0.0002224445    0.3996930678   -1.0490908711
     0.0019767489    0.5589420949   -0.0666273399
     0.0020578594    0.1711195023    1.0119993798
     0.0004182020    0.0074562446    0.1656046386
     9   2
    83.333155 19.557611 6.0803650 2.1793170 .86515000 .36194400 .15474000 .06542900 .02290000
     0.0013446560   -0.0017715885
     0.0102355550   -0.0145621810
     0.0452006710   -0.0574573357
     0.1410756198   -0.2126582848
     0.3047388085   -0.5271712924
     0.3995281011   -0.0929697730
     0.2719163432    0.6630031669
     0.0585766933    0.3360877793
    -0.0001263813    0.0054695244
     4   1
     1.9000000 .66500000 .23275000 .08146300
     0.1424518048
     0.5591973019
     0.4430004380
     0.0410665370
    C1    1.48502362     0.00000000     1.05086445
    C2    0.00000000     1.48502362    -1.05086445
  End of basis
  Basis set
     O. / inline
     8.00   2
    14  3
105374.95 15679.240 3534.5447 987.36516 315.97875 111.65428 42.699451 17.395596 7.4383090 3.2228620 1.2538770 .49515500 .19166500 .06708300
     0.00012386 -0.00002815  0.00002616
     0.00051201 -0.00011630  0.00010748
     0.00215291 -0.00049092  0.00045972
     0.00852844 -0.00194616  0.00179555
     0.03018049 -0.00700530  0.00667574
     0.09099702 -0.02167814  0.02053445
     0.21779364 -0.05641213  0.05828602
     0.36862457 -0.11270530  0.12129691
     0.33667073 -0.15891197  0.22641475
     0.09657630 -0.03355083 -0.04238700
     0.00214452  0.35319028 -1.01045538
     0.00119435  0.55341993 -0.15386868
     0.00053902  0.23018391  0.99345320
     0.00021034  0.01127267  0.18587254
     9   2
   200.00000 46.533367 14.621809 5.3130640 2.1025250 .85022300 .33759700 .12889200 .04511200
     0.00091730 -0.00087213
     0.00737714 -0.00706424
     0.03483515 -0.03330489
     0.11443970 -0.11441275
     0.25549664 -0.29901068
     0.37225574 -0.31986054
     0.33233149  0.20550900
     0.14008479  0.59359268
     0.02395784  0.28229027
     4   1
     3.7500000 1.3125000 .45937500 .16078100
     0.13609758
     0.51401475
     0.47407125
     0.08166905
    O1    2.52413179     0.00000000     1.78618059
    O2    0.00000000     2.52413179    -1.78618059
    Cartesian all
  End of basis
  Basis set
     X. / inline
     0.00   0
     0   0
    X1    2.06266488     0.00000000     0.23457371
    X2    0.00000000     2.06266488    -0.23457371
  End of basis
  Symmetry = xy y
  RICD

&SEWARD

&SCF
  KSDFT = M06
