* OpenMolcas input for QM/MM sample

&GATEWAY
  Coord = 143

    N_MM   8.024    -4.873     2.260
    C_MM   6.863    -4.562     3.142
    C_MM   5.574    -5.090     2.508
    O_MM   4.642    -5.460     3.191
    C_MM   6.760    -3.047     3.335
    H_MM   8.584    -4.150     1.895
    H_MM   7.008    -5.037     4.097
    H_MM   7.739    -2.643     3.542
    H_MM   6.367    -2.596     2.436
    H_MM   6.100    -2.834     4.164
    N_MM   2.861    -9.389     3.642
    C_MM   1.408    -9.733     3.809
    C_MM   0.825   -10.300     2.509
    O_MM  -0.362   -10.220     2.267
    C_MM   0.656    -8.468     4.204
    C_MM   1.316    -7.891     5.432
    C_MM   2.447    -7.077     5.301
    C_MM   0.804    -8.184     6.699
    C_MM   3.066    -6.553     6.443
    C_MM   1.421    -7.659     7.840
    C_MM   2.553    -6.844     7.713
    H_MM   3.137    -8.760     2.941
    H_MM   1.284   -10.467     4.593
    H_MM   0.700    -7.751     3.395
    H_MM  -0.373    -8.706     4.426
    H_MM   2.844    -6.854     4.320
    H_MM  -0.068    -8.812     6.795
    H_MM   3.941    -5.926     6.345
    H_MM   1.027    -7.886     8.818
    H_MM   3.029    -6.440     8.594
    N_MM  -2.401    -7.952    -1.817
    C_MM  -2.741    -7.981    -0.362
    C_MM  -4.177    -7.479    -0.187
    O_MM  -4.744    -6.886    -1.081
    C_MM  -1.781    -7.071     0.415
    C_MM  -1.877    -5.635    -0.128
    C_MM  -0.348    -7.585     0.256
    C_MM  -0.925    -4.719     0.647
    H_MM  -2.712    -7.207    -2.371
    H_MM  -2.668    -8.993     0.016
    H_MM  -2.049    -7.078     1.462
    H_MM  -1.611    -5.625    -1.170
    H_MM  -2.885    -5.269    -0.012
    H_MM  -0.304    -8.628     0.533
    H_MM  -0.036    -7.473    -0.773
    H_MM   0.313    -7.016     0.895
    H_MM  -1.159    -4.767     1.700
    H_MM   0.095    -5.038     0.487
    H_MM  -1.042    -3.705     0.299
    N_MM  -5.056    -5.364     5.357
    C_MM  -3.588    -5.338     5.665
    C_MM  -2.947    -4.099     5.036
    O_MM  -1.741    -3.987     4.970
    C_MM  -2.918    -6.587     5.089
    C_MM  -3.648    -7.839     5.578
    C_MM  -3.096    -9.066     4.853
    O_MM  -3.473    -9.278     3.712
    O_MM  -2.303    -9.776     5.450
    H_MM  -5.372    -5.685     4.482
    H_MM  -3.431    -5.312     6.735
    H_MM  -2.953    -6.545     4.010
    H_MM  -1.889    -6.623     5.413
    H_MM  -3.497    -7.950     6.642
    H_MM  -4.703    -7.747     5.371
    N_MM  -1.447    -2.009     7.722
    C_MM  -0.334    -2.779     8.345
    C_MM   0.950    -2.573     7.539
    O_MM   2.018    -2.405     8.096
    C_MM  -0.700    -4.269     8.374
    O_MM  -2.066    -4.410     8.735
    C_MM   0.173    -5.000     9.398
    H_MM  -2.157    -2.480     7.231
    H_MM  -0.179    -2.423     9.349
    H_MM  -0.538    -4.700     7.398
    H_MM  -2.118    -4.473     9.690
    H_MM   0.111    -4.499    10.352
    H_MM  -0.175    -6.016     9.503
    H_MM   1.200    -5.004     9.060
    N_MM   0.860    -2.579     6.240
    C_MM   2.085    -2.373     5.416
    C_MM   2.586    -0.945     5.626
    O_MM   3.750    -0.715     5.901
    C      1.758    -2.588     3.936
    C      3.012    -2.353     3.096
    C      1.272    -4.023     3.726
    H_MM  -0.009    -2.711     5.807
    H_MM   2.847    -3.074     5.723
    H      0.985    -1.896     3.634
    H      3.828    -2.937     3.496
    H      2.823    -2.650     2.074
    H      3.273    -1.306     3.124
    H      0.538    -4.269     4.478
    H      0.831    -4.114     2.746
    H      2.111    -4.699     3.808
    N_MM   1.713     0.017     5.511
    C_MM   2.135     1.426     5.715
    C_MM   2.724     1.571     7.121
    O_MM   3.657     2.318     7.340
    C_MM   0.915     2.340     5.567
    C_MM   0.561     2.518     4.077
    S_MM   1.396     3.989     3.425
    C_MM   0.127     4.464     2.226
    H_MM   0.778    -0.188     5.297
    H_MM   2.879     1.691     4.977
    H_MM   0.075     1.897     6.086
    H_MM   1.132     3.305     6.001
    H_MM   0.876     1.652     3.513
    H_MM  -0.506     2.637     3.975
    H_MM  -0.246     3.579     1.728
    H_MM  -0.685     4.958     2.735
    H_MM   0.555     5.139     1.497
    N_MM   4.446    -0.528     8.601
    C_MM   5.812    -1.114     8.581
    C_MM   6.814    -0.041     8.144
    O_MM   7.948    -0.020     8.580
    C_MM   5.853    -2.283     7.596
    O_MM   6.036    -1.781     6.279
    H_MM   3.777    -0.816     7.944
    H_MM   6.069    -1.463     9.570
    H_MM   6.674    -2.935     7.844
    H_MM   4.926    -2.836     7.657
    H_MM   5.282    -2.053     5.751
    N_MM  -0.007    -0.216    -5.442
    C_MM   0.643     0.177    -4.165
    C_MM   1.759     1.168    -4.486
    O_MM   1.999     2.105    -3.751
    C_MM   1.220    -1.049    -3.442
    C_MM   1.638    -0.645    -2.047
    C_MM   0.695    -0.630    -1.012
    C_MM   2.966    -0.280    -1.789
    C_MM   1.080    -0.249     0.282
    C_MM   3.347     0.101    -0.496
    C_MM   2.404     0.115     0.538
    H_MM   0.069    -1.131    -5.774
    H_MM  -0.087     0.656    -3.533
    H_MM   0.467    -1.821    -3.379
    H_MM   2.078    -1.422    -3.980
    H_MM  -0.327    -0.912    -1.211
    H_MM   3.695    -0.294    -2.587
    H_MM   0.353    -0.239     1.081
    H_MM   4.368     0.384    -0.294
    H_MM   2.701     0.408     1.533
    H_L    1.991    -2.435     4.990
  Group = NoSym
  Basis = ANO-RCC-VTZP
  RICD

&SEWARD

&SCF
