* OpenMolcas input for uracil: Using LocOrb to select active space

&GATEWAY
  Coord = 12

    C   1.6320  0.2951 -0.0637
    C   1.4462 -1.0375  0.0414
    N   0.1579 -1.5881  0.1158
    C  -1.0000 -0.7548  0.0823
    N  -0.8139  0.6462 -0.0280
    C   0.4966  1.2211 -0.1047
    O  -2.1159 -1.2556  0.1484
    O   0.5471  2.4364 -0.1977
    H   2.2820 -1.7492  0.0738
    H   0.0433 -2.5733  0.1927
    H  -1.6241  1.2299 -0.0514
    H   2.6363  0.7286 -0.1219
  Basis = ANO-RCC-VDZP
  Group = NoSym
  RICD

&SEWARD

&SCF

&LOCALIZATION
  Occupied
&LOCALIZATION
  File = ./$Project.LocOrb
  Virtual

&RASSCF
  File = ./$Project.LocOrb
  Alter = 5
    1  26 23
    1  27 24
    1  20 26
    1  34 30
    1  36 32
  NActElec = 10
  Inactive = 24
  RAS2     = 8

&RASSCF
  File = ./$Project.rasscf.h5
  NActElec = 14 1 1
  Inactive = 22
  RAS1     = 2
  RAS2     = 5
  RAS3     = 3
  CIRoot   = 4 4 1
  TDM
