* OpenMolcas input for water: generate a grid file

&GATEWAY
  Coord = 3

    O  -0.33840  0.00380  0.23923
    H  -0.33510 -0.00190 -0.83277
    H   0.67350 -0.00190  0.59353
  Group = NoSym
  Basis = ANO-RCC-MB

&SEWARD

&SCF

&GRID_IT
  All
  Total
  NoLuscus
  ASCII
